<?xml version="1.0" encoding="UTF-8"?>

<!-- generated on 2025-12-04T12:55:44.031854+01:00 by Eclipse SUMO sumo 1.25.0
-->

<sumoConfiguration xmlns:xsi="http://www.w3.org/2001/XMLSchema-instance" xsi:noNamespaceSchemaLocation="http://sumo.dlr.de/xsd/sumoConfiguration.xsd">

    <input>
        <net-file value="zwycieska_sygnalizacja.net.xml"/>
    </input>

    <output>
        <summary-output value="../summary_output.xml"/>
    </output>

</sumoConfiguration>
