<?xml version="1.0" encoding="UTF-8"?>

<!-- generated on 2025-11-06 12:50:04 by Eclipse SUMO sumo Version 1.24.0
-->

<sumoConfiguration xmlns:xsi="http://www.w3.org/2001/XMLSchema-instance" xsi:noNamespaceSchemaLocation="http://sumo.dlr.de/xsd/sumoConfiguration.xsd">

    <input>
        <net-file value="test.net.xml"/>
    </input>
	<output>
        <summary-output value="../summary_output.xml"/>
    </output>
</sumoConfiguration>
